
     Program PWSCF v.6.3MaX starts on 12Sep2019 at 15:24:40 

     This program is part of the open-source Quantum ESPRESSO suite
     for quantum simulation of materials; please cite
         "P. Giannozzi et al., J. Phys.:Condens. Matter 21 395502 (2009);
         "P. Giannozzi et al., J. Phys.:Condens. Matter 29 465901 (2017);
          URL http://www.quantum-espresso.org", 
     in publications or presentations arising from this work. More details at
     http://www.quantum-espresso.org/quote

     Parallel version (MPI), running on     1 processors

     MPI processes distributed on     1 nodes
     Waiting for input...
     Reading input from standard input

     Current dimensions of program PWSCF are:
     Max number of different atomic species (ntypx) = 10
     Max number of k-points (npk) =  40000
     Max angular momentum in pseudopotentials (lmaxx) =  3

     Subspace diagonalization in iterative solution of the eigenvalue problem:
     a serial algorithm will be used

     Message from routine setup:
     no reason to have ecutrho>4*ecutwfc

     G-vector sticks info
     --------------------
     sticks:   dense  smooth     PW     G-vecs:    dense   smooth      PW
     Sum        1003     499    163                20827     7391    1363


     Title: 
     run01                                                                      


     bravais-lattice index     =            2
     lattice parameter (alat)  =      11.0000  a.u.
     unit-cell volume          =     332.7500 (a.u.)^3
     number of atoms/cell      =            2
     number of atomic types    =            1
     number of electrons       =         8.00
     number of Kohn-Sham states=            4
     kinetic-energy cutoff     =      30.0000  Ry
     charge density cutoff     =     240.0000  Ry
     convergence threshold     =      1.0E-07
     mixing beta               =       0.7000
     number of iterations used =            8  plain     mixing
     Exchange-correlation      =  SLA  PW   PBE  PBE ( 1  4  3  4 0 0)

     celldm(1)=  11.000000  celldm(2)=   0.000000  celldm(3)=   0.000000
     celldm(4)=   0.000000  celldm(5)=   0.000000  celldm(6)=   0.000000

     crystal axes: (cart. coord. in units of alat)
               a(1) = (  -0.500000   0.000000   0.500000 )  
               a(2) = (   0.000000   0.500000   0.500000 )  
               a(3) = (  -0.500000   0.500000   0.000000 )  

     reciprocal axes: (cart. coord. in units 2 pi/alat)
               b(1) = ( -1.000000 -1.000000  1.000000 )  
               b(2) = (  1.000000  1.000000  1.000000 )  
               b(3) = ( -1.000000  1.000000 -1.000000 )  


     PseudoPot. # 1 for Si read from file:
     /home/yavar01/VIDEOLECTURE/QE/Si.pbe-rrkj.UPF
     MD5 check sum: cf7ab5690cd9a85b22c4813f7e365554
     Pseudo is Norm-conserving, Zval =  4.0
     Generated by new atomic code, or converted to UPF format
     Using radial grid of  883 points,  3 beta functions with: 
                l(1) =   0
                l(2) =   0
                l(3) =   1

     atomic species   valence    mass     pseudopotential
        Si             4.00    28.00000     Si( 1.00)

     48 Sym. Ops., with inversion, found (24 have fractional translation)



   Cartesian axes

     site n.     atom                  positions (alat units)
         1           Si  tau(   1) = (   0.0000000   0.0000000   0.0000000  )
         2           Si  tau(   2) = (  -0.2500000   0.2500000   0.2500000  )

     number of k points=    10
                       cart. coord. in units 2pi/alat
        k(    1) = (  -0.1250000   0.1250000   0.1250000), wk =   0.0625000
        k(    2) = (  -0.3750000   0.3750000  -0.1250000), wk =   0.1875000
        k(    3) = (   0.3750000  -0.3750000   0.6250000), wk =   0.1875000
        k(    4) = (   0.1250000  -0.1250000   0.3750000), wk =   0.1875000
        k(    5) = (  -0.1250000   0.6250000   0.1250000), wk =   0.1875000
        k(    6) = (   0.6250000  -0.1250000   0.8750000), wk =   0.3750000
        k(    7) = (   0.3750000   0.1250000   0.6250000), wk =   0.3750000
        k(    8) = (  -0.1250000  -0.8750000   0.1250000), wk =   0.1875000
        k(    9) = (  -0.3750000   0.3750000   0.3750000), wk =   0.0625000
        k(   10) = (   0.3750000  -0.3750000   1.1250000), wk =   0.1875000

     Dense  grid:    20827 G-vectors     FFT dimensions: (  40,  40,  40)

     Smooth grid:     7391 G-vectors     FFT dimensions: (  27,  27,  27)

     Estimated max dynamical RAM per process >      14.55 MB

     Initial potential from superposition of free atoms

     starting charge    7.99889, renormalised to    8.00000
     Starting wfcs are    8 randomized atomic wfcs

     total cpu time spent up to now is        1.0 secs

     Self-consistent Calculation

     iteration #  1     ecut=    30.00 Ry     beta= 0.70
     Davidson diagonalization with overlap
     ethr =  1.00E-02,  avg # of iterations =  1.9

     Threshold (ethr) on eigenvalues was too large:
     Diagonalizing with lowered threshold

     Davidson diagonalization with overlap
     ethr =  4.54E-04,  avg # of iterations =  2.8

     total cpu time spent up to now is        1.3 secs

     total energy              =     -15.71666166 Ry
     Harris-Foulkes estimate   =     -15.72328142 Ry
     estimated scf accuracy    <       0.04059476 Ry

     iteration #  2     ecut=    30.00 Ry     beta= 0.70
     Davidson diagonalization with overlap
     ethr =  5.07E-04,  avg # of iterations =  1.0

     total cpu time spent up to now is        1.4 secs

     total energy              =     -15.71750670 Ry
     Harris-Foulkes estimate   =     -15.71759871 Ry
     estimated scf accuracy    <       0.00258442 Ry

     iteration #  3     ecut=    30.00 Ry     beta= 0.70
     Davidson diagonalization with overlap
     ethr =  3.23E-05,  avg # of iterations =  1.7

     total cpu time spent up to now is        1.6 secs

     total energy              =     -15.71771062 Ry
     Harris-Foulkes estimate   =     -15.71771933 Ry
     estimated scf accuracy    <       0.00003140 Ry

     iteration #  4     ecut=    30.00 Ry     beta= 0.70
     Davidson diagonalization with overlap
     ethr =  3.92E-07,  avg # of iterations =  3.8

     total cpu time spent up to now is        1.8 secs

     total energy              =     -15.71774868 Ry
     Harris-Foulkes estimate   =     -15.71774877 Ry
     estimated scf accuracy    <       0.00000036 Ry

     iteration #  5     ecut=    30.00 Ry     beta= 0.70
     Davidson diagonalization with overlap
     ethr =  4.50E-09,  avg # of iterations =  2.6

     total cpu time spent up to now is        2.0 secs

     End of self-consistent calculation

          k =-0.1250 0.1250 0.1250 (   914 PWs)   bands (ev):

    -6.1886   2.6401   4.0178   4.0178

          k =-0.3750 0.3750-0.1250 (   921 PWs)   bands (ev):

    -5.3282  -0.0306   2.3419   3.5892

          k = 0.3750-0.3750 0.6250 (   925 PWs)   bands (ev):

    -4.4161  -1.7295   2.2874   2.9564

          k = 0.1250-0.1250 0.3750 (   925 PWs)   bands (ev):

    -5.7433   1.1209   3.1759   3.1909

          k =-0.1250 0.6250 0.1250 (   920 PWs)   bands (ev):

    -4.8752  -0.4855   2.0826   2.4519

          k = 0.6250-0.1250 0.8750 (   922 PWs)   bands (ev):

    -3.5330  -2.1779   1.0107   1.8860

          k = 0.3750 0.1250 0.6250 (   921 PWs)   bands (ev):

    -4.5431  -1.1446   1.5252   2.6859

          k =-0.1250-0.8750 0.1250 (   931 PWs)   bands (ev):

    -3.6405  -2.1133   1.4977   2.0531

          k =-0.3750 0.3750 0.3750 (   926 PWs)   bands (ev):

    -4.9799  -1.0463   3.3332   3.3332

          k = 0.3750-0.3750 1.1250 (   927 PWs)   bands (ev):

    -3.9946  -1.8148   1.0115   2.6986

     highest occupied level (ev):     4.0178

!    total energy              =     -15.71774881 Ry
     Harris-Foulkes estimate   =     -15.71774881 Ry
     estimated scf accuracy    <       0.00000002 Ry

     The total energy is the sum of the following terms:

     one-electron contribution =       3.27515123 Ry
     hartree contribution      =       1.28280239 Ry
     xc contribution           =      -4.60501721 Ry
     ewald contribution        =     -15.67068522 Ry

     convergence has been achieved in   5 iterations

     Writing output data file SP.save/

     init_run     :      0.32s CPU      0.47s WALL (       1 calls)
     electrons    :      1.68s CPU      1.03s WALL (       1 calls)

     Called by init_run:
     wfcinit      :      0.14s CPU      0.11s WALL (       1 calls)
     potinit      :      0.07s CPU      0.08s WALL (       1 calls)
     hinit0       :      0.08s CPU      0.21s WALL (       1 calls)

     Called by electrons:
     c_bands      :      0.98s CPU      0.56s WALL (       6 calls)
     sum_band     :      0.22s CPU      0.13s WALL (       6 calls)
     v_of_rho     :      0.39s CPU      0.22s WALL (       6 calls)
     mix_rho      :      0.04s CPU      0.04s WALL (       6 calls)

     Called by c_bands:
     init_us_2    :      0.04s CPU      0.02s WALL (     130 calls)
     cegterg      :      0.93s CPU      0.53s WALL (      60 calls)

     Called by sum_band:

     Called by *egterg:
     h_psi        :      0.95s CPU      0.54s WALL (     208 calls)
     g_psi        :      0.00s CPU      0.00s WALL (     138 calls)
     cdiaghg      :      0.05s CPU      0.06s WALL (     188 calls)

     Called by h_psi:
     h_psi:pot    :      0.95s CPU      0.54s WALL (     208 calls)
     h_psi:calbec :      0.01s CPU      0.02s WALL (     208 calls)
     vloc_psi     :      0.91s CPU      0.51s WALL (     208 calls)
     add_vuspsi   :      0.02s CPU      0.01s WALL (     208 calls)

     General routines
     calbec       :      0.01s CPU      0.02s WALL (     208 calls)
     fft          :      0.25s CPU      0.20s WALL (      71 calls)
     ffts         :      0.01s CPU      0.01s WALL (      12 calls)
     fftw         :      0.96s CPU      0.56s WALL (    1736 calls)
     interpolate  :      0.02s CPU      0.01s WALL (       6 calls)

     Parallel routines

     PWSCF        :     2.06s CPU         2.05s WALL


   This run was terminated on:  15:24:42  12Sep2019            

=------------------------------------------------------------------------------=
   JOB DONE.
=------------------------------------------------------------------------------=


